 Gaussian 03, Revision D.01,
 Gaussian 03:  AM64L-G03RevD.01 13-Oct-2005

 --------------------
 # opt=calcfc cbs-qb3
 --------------------

 -------------
 1-butene geom
 -------------
 Symbolic Z-matrix:
 Charge =  0 Multiplicity = 1

 SCF Done:  E(RB+HF-LYP) =  -157.268028367     A.U. after   13 cycles
 SCF Done:  E(RB+HF-LYP) =  -157.268083651     A.U. after   10 cycles
 Optimization completed.
    -- Stationary point found.
 Normal termination of Gaussian 03 at Fri Nov 20 15:42:33 2009.

 -------------------------------------------------------
 #N Geom=AllCheck Guess=Read SCRF=Check B3LYP/CBSB7 Freq
 -------------------------------------------------------

 1-butene geom
 -------------
 Redundant internal coordinates taken from checkpoint file:
 Butene_1-geom.chk
 Charge =  0 Multiplicity = 1

 SCF Done:  E(RB+HF-LYP) =  -157.268083651     A.U. after    1 cycles

  Exact polarizability:  60.514  -0.517  41.104   5.967  -3.620  38.899
 Approx polarizability:  78.285  -2.617  56.675  12.357  -6.499  56.314

                     1                      2                      3
                     A                      A                      A
 Frequencies --   107.9882               230.7836               316.6253
 Red. masses --     2.2467                 1.0876                 1.7898
 Frc consts  --     0.0154                 0.0341                 0.1057
 IR Inten    --     0.0668                 0.0260                 0.5534

                     4                      5                      6
                     A                      A                      A
 Frequencies --   433.5072               654.4825               798.1430
 Red. masses --     1.9862                 1.4834                 1.1791
 Frc consts  --     0.2199                 0.3744                 0.4426
 IR Inten    --     0.7677                10.5659                 3.0928

                     7                      8                      9
                     A                      A                      A
 Frequencies --   856.8880               943.1309               989.0625
 Red. masses --     1.9541                 1.3404                 1.2106
 Frc consts  --     0.8453                 0.7025                 0.6978
 IR Inten    --     2.1047                44.5079                 2.5580

                    10                     11                     12
                     A                      A                      A
 Frequencies --  1020.2090              1034.4426              1093.5268
 Red. masses --     2.0499                 1.2100                 1.6902
 Frc consts  --     1.2571                 0.7628                 1.1908
 IR Inten    --     2.9132                10.9530                 3.8385

                    13                     14                     15
                     A                      A                      A
 Frequencies --  1198.1260              1291.2655              1319.7812
 Red. masses --     1.9256                 1.1721                 1.2510
 Frc consts  --     1.6286                 1.1515                 1.2839
 IR Inten    --     0.2719                 0.0578                 1.1507

                    16                     17                     18
                     A                      A                      A
 Frequencies --  1346.0085              1409.7483              1453.9409
 Red. masses --     1.3906                 1.2215                 1.1795
 Frc consts  --     1.4844                 1.4303                 1.4691
 IR Inten    --     2.0497                 2.2400                 2.2138

                    19                     20                     21
                     A                      A                      A
 Frequencies --  1484.6766              1498.8912              1508.4478
 Red. masses --     1.0743                 1.0399                 1.0718
 Frc consts  --     1.3953                 1.3765                 1.4369
 IR Inten    --     3.9421                 6.9189                 6.1084

                    22                     23                     24
                     A                      A                      A
 Frequencies --  1708.2988              3003.7437              3024.0563
 Red. masses --     4.6433                 1.0651                 1.0348
 Frc consts  --     7.9837                 5.6618                 5.5753
 IR Inten    --    11.1490                29.1471                32.9287

                    25                     26                     27
                     A                      A                      A
 Frequencies --  3047.8103              3087.0883              3094.2301
 Red. masses --     1.0956                 1.1012                 1.1027
 Frc consts  --     5.9963                 6.1831                 6.2201
 IR Inten    --     9.3045                38.5510                38.0726

                    28                     29                     30
                     A                      A                      A
 Frequencies --  3109.9922              3125.0426              3206.4490
 Red. masses --     1.0824                 1.0674                 1.1150
 Frc consts  --     6.1682                 6.1417                 6.7541
 IR Inten    --    36.9237                 5.2879                21.6282

 - Thermochemistry -
 -------------------
 Temperature   298.150 Kelvin.  Pressure   1.00000 Atm.
 Atom  1 has atomic number  6 and mass  12.00000

 Molecular mass:    56.06260 amu.
 Principal axes and moments of inertia in atomic units:
                           1         2         3
     EIGENVALUES --    79.54473 437.09661 447.09081
           X            0.99999  -0.00088   0.00416
           Y            0.00203   0.95879  -0.28412
           Z           -0.00374   0.28413   0.95878
 This molecule is an asymmetric top.
 Rotational symmetry number  1.
 Rotational temperatures (Kelvin)      1.08887     0.19816     0.19373
 Rotational constants (GHZ):          22.68838     4.12893     4.03663
 Zero-point vibrational energy     283493.3 (Joules/Mol)
                                   67.75654 (Kcal/Mol)
 Warning -- explicit consideration of   4 degrees of freedom as
           vibrations may cause significant error
 Vibrational temperatures:    155.37   332.05   455.55   623.72   941.65
          (Kelvin)           1148.35  1232.87  1356.95  1423.04  1467.85
                             1488.33  1573.34  1723.83  1857.84  1898.87
                             1936.60  2028.31  2091.89  2136.12  2156.57
                             2170.32  2457.86  4321.71  4350.94  4385.11
                             4441.63  4451.90  4474.58  4496.23  4613.36

 Zero-point correction=                           0.107977 (Hartree/Particle)
 Thermal correction to Energy=                    0.113250
 Thermal correction to Enthalpy=                  0.114194
 Thermal correction to Gibbs Free Energy=         0.080470
 Sum of electronic and zero-point Energies=           -157.160107
 Sum of electronic and thermal Energies=              -157.154834
 Sum of electronic and thermal Enthalpies=            -157.153889
 Sum of electronic and thermal Free Energies=         -157.187613

                     E (Thermal)             CV                S
                      KCal/Mol        Cal/Mol-Kelvin    Cal/Mol-Kelvin
 Total                   71.065             17.765             70.978
 Electronic               0.000              0.000              0.000
 Translational            0.889              2.981             37.993
 Rotational               0.889              2.981             24.256
 Vibrational             69.288             11.803              8.729
 Vibration  1             0.606              1.943              3.305
 Vibration  2             0.652              1.794              1.873
 Vibration  3             0.704              1.642              1.327
 Vibration  4             0.794              1.397              0.847

 Optimization completed.
    -- Stationary point found.
 Normal termination of Gaussian 03 at Fri Nov 20 15:44:11 2009.

 ---------------------------------------------------------
 #N Geom=AllCheck Guess=Read SCRF=Check CCSD(T)/6-31+G(d')
 ---------------------------------------------------------

 1-butene geom
 -------------
 Redundant internal coordinates taken from checkpoint file:
 Butene_1-geom.chk
 Charge =  0 Multiplicity = 1

 SCF Done:  E(RHF) =  -156.108257623     A.U. after   12 cycles
 CCSD(T)= -0.15670244421D+03

 1\1\GINC-NODE39\SP\RCCSD(T)-FC\6-31+(d')\C4H8\MRHARPER\20-Nov-2009\0\\
 #N Geom=AllCheck Guess=Read SCRF=Check CCSD(T)/6-31+G(d')\\1-butene ge
 om\\0,1\C,0,-0.0041760646,-0.0039298855,-0.000835466\H,0,-0.0061531841
 ,-0.0137462598,1.0853545853\H,0,0.9653133857,-0.0011450217,-0.48638047
 53\C,0,-1.1361625184,0.0076289273,-0.6982735452\H,0,-1.0838426139,0.01
 43706756,-1.7868792847\C,0,-2.5204393251,-0.0034949474,-0.112733047\H,
 0,-2.4558665838,0.0397328119,0.9792737621\H,0,-3.0514264736,0.90276618
 07,-0.431632264\C,0,-3.3395352724,-1.2320554991,-0.5409970704\H,0,-2.8

 837071\CCSD(T)=-156.7024442\RMSD=6.403e-09\Thermal=0.\PG=C01 [X(C4H8)]
 Normal termination of Gaussian 03 at Fri Nov 20 15:47:01 2009.

 ---------------------------------------------------
 #N Geom=AllCheck Guess=Read SCRF=Check MP4SDQ/CBSB4
 ---------------------------------------------------

 1-butene geom
 -------------
 Redundant internal coordinates taken from checkpoint file:
 Butene_1-geom.chk
 Charge =  0 Multiplicity = 1

 SCF Done:  E(RHF) =  -156.119652864     A.U. after   11 cycles
 Normal termination of Gaussian 03 at Fri Nov 20 15:47:28 2009.

 ----------------------------------------------------------------------
 #N Geom=AllCheck Guess=Read SCRF=Check MP2/CBSB3 CBSExtrap=(NMin=10,Mi
 nPop)
 ----------------------------------------------------------------------

 1-butene geom
 -------------
 Redundant internal coordinates taken from checkpoint file:
 Butene_1-geom.chk
 Charge =  0 Multiplicity = 1

                         Standard orientation:
 ---------------------------------------------------------------------
 Center     Atomic     Atomic              Coordinates (Angstroms)
 Number     Number      Type              X           Y           Z
 ---------------------------------------------------------------------
    1          6             0       -1.857741    0.017148   -0.280852
    2          1             0       -1.951598    0.924060   -0.871285
    3          1             0       -2.734037   -0.618678   -0.221665
    4          6             0       -0.724160   -0.293932    0.340573
    5          1             0       -0.676902   -1.216312    0.919215
    6          6             0        0.539011    0.520037    0.308032
    7          1             0        0.365408    1.442036   -0.256146
    8          1             0        0.796670    0.822329    1.331352
    9          6             0        1.727617   -0.246891   -0.294236
   10          1             0        1.526682   -0.525233   -1.332051
   11          1             0        2.636822    0.359975   -0.274373
   12          1             0        1.928593   -1.166353    0.263848
 ---------------------------------------------------------------------

 SCF Done:  E(RHF) =  -156.159729531     A.U. after   10 cycles
 E2 =    -0.6704635269D+00 EUMP2 =    -0.15683019305805D+03
 E2(CBS)=      -0.734774 CBS-Int=       0.023407 OIii=       6.086385

 The electronic state is 1-A.
 Alpha  occ. eigenvalues --  -11.23030 -11.22561 -11.21690 -11.21521  -1.07877
 Alpha  occ. eigenvalues --   -0.98834  -0.85600  -0.75437  -0.64189  -0.60585
 Alpha  occ. eigenvalues --   -0.58443  -0.53540  -0.51679  -0.48675  -0.47481
 Alpha  occ. eigenvalues --   -0.35963
 Alpha virt. eigenvalues --    0.04292   0.05514   0.05834   0.06296   0.07607
 Alpha virt. eigenvalues --    0.08543   0.08981   0.10509   0.11674   0.13967
 Alpha virt. eigenvalues --    0.15308   0.15699   0.17014   0.18658   0.18823

 Mulliken atomic charges:
              1
     1  C   -0.546843
     2  H    0.089245
     3  H    0.084491
     4  C    0.195757
     5  H    0.137544
     6  C    0.095607
     7  H    0.058623
     8  H    0.014432
     9  C   -0.298903
    10  H    0.050973
    11  H    0.057574
    12  H    0.061499
 Sum of Mulliken charges=   0.00000

 Dipole moment (field-independent basis, Debye):
    X=     0.4045    Y=     0.0612    Z=     0.0947  Tot=     0.4199
 Quadrupole moment (field-independent basis, Debye-Ang):
   XX=   -26.9392   YY=   -26.7643   ZZ=   -27.7929
   XY=     0.5120   XZ=     0.9847   YZ=    -1.4510

 Normal termination of Gaussian 03 at Fri Nov 20 15:48:57 2009.
