 Gaussian 03, Revision D.01,
 Gaussian 03:  AM64L-G03RevD.01 13-Oct-2005

 -------------------------------------
 # freq b3lyp/cbsb7 nosymm iop(7/33=1)
 -------------------------------------

 -------------
 1-butene freq
 -------------
 Symbolic Z-matrix:
 Charge =  0 Multiplicity = 1

                          Input orientation:
 ---------------------------------------------------------------------
 Center     Atomic     Atomic              Coordinates (Angstroms)
 Number     Number      Type              X           Y           Z
 ---------------------------------------------------------------------
    1          6             0        0.000000    0.000000    0.000000
    2          1             0        0.000000    0.000000    1.086236
    3          1             0        0.968606    0.000000   -0.487313
    4          6             0       -1.133260    0.003377   -0.695453
    5          1             0       -1.082916    0.000364   -1.784168
    6          6             0       -2.516458   -0.004744   -0.107318
    7          1             0       -2.449987    0.048461    0.984134
    8          1             0       -3.049535    0.897716   -0.433428
    9          6             0       -3.334270   -1.238482   -0.522970
   10          1             0       -2.857560   -2.158154   -0.173886
   11          1             0       -4.344021   -1.198746   -0.105647
   12          1             0       -3.426000   -1.303745   -1.611356
 ---------------------------------------------------------------------

 SCF Done:  E(RB+HF-LYP) =  -157.268090431     A.U. after   13 cycles

 Alpha  occ. eigenvalues --  -10.17201 -10.17104 -10.16163 -10.15850  -0.80067
 Alpha  occ. eigenvalues --   -0.72932  -0.62885  -0.55393  -0.47207  -0.44356
 Alpha  occ. eigenvalues --   -0.42632  -0.38450  -0.37537  -0.34532  -0.33612
 Alpha  occ. eigenvalues --   -0.26020
 Alpha virt. eigenvalues --    0.01100   0.05246   0.07081   0.07768   0.09385
 Alpha virt. eigenvalues --    0.12112   0.12735   0.13213   0.14732   0.20362
 Alpha virt. eigenvalues --    0.24761   0.29375   0.30351   0.32070   0.33005

 Mulliken atomic charges:
              1
     1  C   -0.202494
     2  H    0.097064
     3  H    0.103747
     4  C   -0.128466
     5  H    0.094447
     6  C   -0.212595
     7  H    0.107169
     8  H    0.117511
     9  C   -0.298184
    10  H    0.110968
    11  H    0.106979
    12  H    0.103853
 Sum of Mulliken charges=   0.00000

 Dipole moment (field-independent basis, Debye):
    X=    -0.3505    Y=     0.0018    Z=    -0.0543  Tot=     0.3547
 Quadrupole moment (field-independent basis, Debye-Ang):
   XX=   -25.0919   YY=   -28.7339   ZZ=   -25.7139
   XY=    -0.1900   XZ=     0.1685   YZ=    -0.1657

  Exact polarizability:  60.264   3.085  35.736   5.096   0.736  44.518
 Approx polarizability:  79.238   0.594  47.871  10.659   0.047  64.167

                     1                      2                      3
                     A                      A                      A
 Frequencies --   111.5532               231.2354               318.5069
 Red. masses --     2.2561                 1.0872                 1.7922
 Frc consts  --     0.0165                 0.0342                 0.1071
 IR Inten    --     0.0682                 0.0285                 0.5600

                     4                      5                      6
                     A                      A                      A
 Frequencies --   432.8288               654.8413               798.5057
 Red. masses --     1.9836                 1.4809                 1.1790
 Frc consts  --     0.2189                 0.3741                 0.4429
 IR Inten    --     0.7547                10.6415                 3.1204

                     7                      8                      9
                     A                      A                      A
 Frequencies --   857.3299               944.2172               989.3283
 Red. masses --     1.9555                 1.3417                 1.2161
 Frc consts  --     0.8468                 0.7048                 0.7013
 IR Inten    --     2.0889                44.2049                 2.5170

                    10                     11                     12
                     A                      A                      A
 Frequencies --  1020.7386              1035.7876              1093.8074
 Red. masses --     2.0501                 1.2028                 1.6875
 Frc consts  --     1.2585                 0.7603                 1.1895
 IR Inten    --     2.8593                11.2142                 3.8929

                    13                     14                     15
                     A                      A                      A
 Frequencies --  1197.9774              1291.0135              1320.6055
 Red. masses --     1.9289                 1.1722                 1.2509
 Frc consts  --     1.6310                 1.1511                 1.2854
 IR Inten    --     0.2854                 0.0572                 1.1836

                    16                     17                     18
                     A                      A                      A
 Frequencies --  1345.8374              1410.4303              1453.6213
 Red. masses --     1.3903                 1.2219                 1.1799
 Frc consts  --     1.4836                 1.4321                 1.4689
 IR Inten    --     2.0244                 2.2406                 2.2395

                    19                     20                     21
                     A                      A                      A
 Frequencies --  1484.7123              1499.4993              1508.2722
 Red. masses --     1.0743                 1.0399                 1.0711
 Frc consts  --     1.3953                 1.3776                 1.4356
 IR Inten    --     3.9547                 6.8858                 6.0793

                    22                     23                     24
                     A                      A                      A
 Frequencies --  1708.4574              3003.5675              3024.3297
 Red. masses --     4.6433                 1.0650                 1.0348
 Frc consts  --     7.9852                 5.6608                 5.5764
 IR Inten    --    11.1395                29.1726                32.8984

                    25                     26                     27
                     A                      A                      A
 Frequencies --  3047.7478              3087.4084              3094.4597
 Red. masses --     1.0957                 1.1012                 1.1027
 Frc consts  --     5.9966                 6.1845                 6.2211
 IR Inten    --     9.3858                38.8973                38.1150

                    28                     29                     30
                     A                      A                      A
 Frequencies --  3110.6093              3125.0143              3206.6032
 Red. masses --     1.0820                 1.0678                 1.1149
 Frc consts  --     6.1683                 6.1440                 6.7544
 IR Inten    --    36.5134                 5.1528                21.6571

 - Thermochemistry -
 -------------------
 Temperature   298.150 Kelvin.  Pressure   1.00000 Atm.
 Atom  1 has atomic number  6 and mass  12.00000

 Molecular mass:    56.06260 amu.
 Principal axes and moments of inertia in atomic units:
                           1         2         3
     EIGENVALUES --    79.54473 437.09661 447.09084
           X            0.94785  -0.28614   0.14039
           Y            0.30782   0.70755  -0.63610
           Z            0.08268   0.64614   0.75873
 This molecule is an asymmetric top.
 Rotational symmetry number  1.
 Rotational temperatures (Kelvin)      1.08887     0.19816     0.19373
 Rotational constants (GHZ):          22.68838     4.12893     4.03663
 Zero-point vibrational energy     283567.9 (Joules/Mol)
                                   67.77435 (Kcal/Mol)
 Warning -- explicit consideration of   4 degrees of freedom as
           vibrations may cause significant error
 Vibrational temperatures:    160.50   332.70   458.26   622.74   942.17
          (Kelvin)           1148.87  1233.51  1358.52  1423.42  1468.61
                             1490.27  1573.74  1723.62  1857.48  1900.05
                             1936.36  2029.29  2091.43  2136.17  2157.44
                             2170.06  2458.09  4321.46  4351.33  4385.02
                             4442.09  4452.23  4475.47  4496.19  4613.58

 Zero-point correction=                           0.108005 (Hartree/Particle)
 Thermal correction to Energy=                    0.113268
 Thermal correction to Enthalpy=                  0.114213
 Thermal correction to Gibbs Free Energy=         0.080525
 Sum of electronic and zero-point Energies=           -157.160085
 Sum of electronic and thermal Energies=              -157.154822
 Sum of electronic and thermal Enthalpies=            -157.153878
 Sum of electronic and thermal Free Energies=         -157.187565

                     E (Thermal)             CV                S
                      KCal/Mol        Cal/Mol-Kelvin    Cal/Mol-Kelvin
 Total                   71.077             17.753             70.901
 Electronic               0.000              0.000              0.000
 Translational            0.889              2.981             37.993
 Rotational               0.889              2.981             24.256
 Vibrational             69.300             11.791              8.652
 Vibration  1             0.607              1.940              3.242
 Vibration  2             0.653              1.793              1.869
 Vibration  3             0.705              1.638              1.318
 Vibration  4             0.794              1.399              0.849

 Normal termination of Gaussian 03 at Fri Nov 20 16:12:25 2009.
