 Gaussian 03, Revision D.01,
 Gaussian 03:  AM64L-G03RevD.01 13-Oct-2005

 -------------------------------------------------------
 # freq geom=connectivity b3lyp/cbsb7 nosymm iop(7/33=1)
 -------------------------------------------------------

 ----------------
 sBuOH: frequency
 ----------------
 Symbolic Z-matrix:
 Charge =  0 Multiplicity = 1

                          Input orientation:
 ---------------------------------------------------------------------
 Center     Atomic     Atomic              Coordinates (Angstroms)
 Number     Number      Type              X           Y           Z
 ---------------------------------------------------------------------
    1          6             0        0.000000    0.000000    0.000000
    2          1             0        0.000000    0.000000    1.091630
    3          1             0        1.043183    0.000000   -0.330975
    4          1             0       -0.459531    0.929513   -0.345920
    5          6             0       -0.745463   -1.223483   -0.537261
    6          1             0       -1.810176   -1.158873   -0.272176
    7          1             0       -0.705281   -1.238094   -1.632717
    8          6             0       -0.196561   -2.553373   -0.004971
    9          1             0        0.872537   -2.609806   -0.236160
   10          6             0       -0.901122   -3.765895   -0.611335
   11          1             0       -0.775956   -3.798158   -1.697562
   12          1             0       -0.497772   -4.687597   -0.186893
   13          1             0       -1.976409   -3.734839   -0.400107
   14          8             0       -0.241312   -2.600065    1.426611
   15          1             0       -1.168941   -2.580511    1.687870
 ---------------------------------------------------------------------

 SCF Done:  E(RB+HF-LYP) =  -233.743048988     A.U. after   12 cycles

 Alpha  occ. eigenvalues --  -19.10929 -10.21888 -10.16768 -10.16169 -10.15500
 Alpha  occ. eigenvalues --   -1.01728  -0.78644  -0.72931  -0.63750  -0.59555
 Alpha  occ. eigenvalues --   -0.47938  -0.47112  -0.44537  -0.42286  -0.41010
 Alpha  occ. eigenvalues --   -0.37253  -0.37055  -0.34945  -0.34145  -0.31721
 Alpha  occ. eigenvalues --   -0.27165
 Alpha virt. eigenvalues --    0.03361   0.06057   0.06705   0.08459   0.10021
 Alpha virt. eigenvalues --    0.11597   0.12114   0.13104   0.13492   0.15515
 Alpha virt. eigenvalues --    0.20135   0.21163   0.21897   0.23154   0.29807

 Mulliken atomic charges:
              1
     1  C   -0.281549
     2  H    0.110675
     3  H    0.100623
     4  H    0.104350
     5  C   -0.222452
     6  H    0.088750
     7  H    0.102847
     8  C    0.018636
     9  H    0.107948
    10  C   -0.270388
    11  H    0.101424
    12  H    0.116954
    13  H    0.086900
    14  O   -0.389279
    15  H    0.224561
 Sum of Mulliken charges=   0.00000

 Dipole moment (field-independent basis, Debye):
    X=    -1.2100    Y=     0.0409    Z=    -0.9907  Tot=     1.5644
 Quadrupole moment (field-independent basis, Debye-Ang):
   XX=   -31.4286   YY=   -34.4049   ZZ=   -34.6959
   XY=     2.8813   XZ=    -2.8127   YZ=     2.6027

  Exact polarizability:  48.952   2.190  57.106  -0.193   0.991  49.782
 Approx polarizability:  70.492   0.043  66.548  -1.445  -0.020  70.332

                     1                      2                      3
                     A                      A                      A
 Frequencies --   118.0164               218.5641               238.4165
 Red. masses --     1.8585                 1.1713                 1.4621
 Frc consts  --     0.0153                 0.0330                 0.0490
 IR Inten    --     0.1200                 0.0347                 3.4317

                     4                      5                      6
                     A                      A                      A
 Frequencies --   254.6541               310.7388               376.2608
 Red. masses --     1.5384                 1.0570                 2.7826
 Frc consts  --     0.0588                 0.0601                 0.2321
 IR Inten    --     0.3629               102.3728                15.0991

                     7                      8                      9
                     A                      A                      A
 Frequencies --   463.4896               496.2596               774.2426
 Red. masses --     2.0951                 2.8571                 1.5991
 Frc consts  --     0.2652                 0.4146                 0.5648
 IR Inten    --     8.2415                13.9108                 0.8723

                    10                     11                     12
                     A                      A                      A
 Frequencies --   818.1429               918.6795               981.2657
 Red. masses --     1.5524                 2.1116                 1.2706
 Frc consts  --     0.6122                 1.0500                 0.7209
 IR Inten    --     5.2553                15.1868                13.7031

                    13                     14                     15
                     A                      A                      A
 Frequencies --  1000.4950              1037.1368              1097.6531
 Red. masses --     1.5088                 3.1830                 1.4889
 Frc consts  --     0.8898                 2.0172                 1.0569
 IR Inten    --    13.5408                 8.3622                61.5406

                    16                     17                     18
                     A                      A                      A
 Frequencies --  1131.3083              1178.3235              1263.2546
 Red. masses --     2.1014                 2.1567                 1.3130
 Frc consts  --     1.5846                 1.7643                 1.2345
 IR Inten    --    22.2305                13.4497                 7.8751

                    19                     20                     21
                     A                      A                      A
 Frequencies --  1326.7155              1340.5850              1390.5740
 Red. masses --     1.2910                 1.3319                 1.5183
 Frc consts  --     1.3389                 1.4103                 1.7298
 IR Inten    --     4.1921                 4.4487                 3.8798

                    22                     23                     24
                     A                      A                      A
 Frequencies --  1405.9513              1411.0387              1427.9111
 Red. masses --     1.2456                 1.2358                 1.1981
 Frc consts  --     1.4507                 1.4497                 1.4392
 IR Inten    --     5.9093                12.9979                37.5529

                    25                     26                     27
                     A                      A                      A
 Frequencies --  1480.5401              1494.3061              1496.4979
 Red. masses --     1.0697                 1.0625                 1.0480
 Frc consts  --     1.3815                 1.3979                 1.3829
 IR Inten    --     0.2973                 5.5304                 3.0656

                    28                     29                     30
                     A                      A                      A
 Frequencies --  1498.2436              1511.4136              2990.4016
 Red. masses --     1.0441                 1.0592                 1.0666
 Frc consts  --     1.3808                 1.4256                 5.6196
 IR Inten    --    11.8538                 7.0882                21.2857

                    31                     32                     33
                     A                      A                      A
 Frequencies --  3014.0316              3027.4052              3031.2573
 Red. masses --     1.0428                 1.0411                 1.0810
 Frc consts  --     5.5814                 5.6220                 5.8525
 IR Inten    --    17.8903                30.6677                21.0591

                    34                     35                     36
                     A                      A                      A
 Frequencies --  3042.5308              3079.6488              3086.1974
 Red. masses --     1.0901                 1.0975                 1.1008
 Frc consts  --     5.9455                 6.1329                 6.1771
 IR Inten    --    30.1862                36.6992                61.6000

                    37                     38                     39
                     A                      A                      A
 Frequencies --  3104.2551              3108.0577              3802.0357
 Red. masses --     1.1014                 1.1008                 1.0659
 Frc consts  --     6.2533                 6.2654                 9.0778
 IR Inten    --    20.6498                36.2975                13.4350

 - Thermochemistry -
 -------------------
 Temperature   298.150 Kelvin.  Pressure   1.00000 Atm.
 Atom  1 has atomic number  6 and mass  12.00000

 Molecular mass:    74.07317 amu.
 Principal axes and moments of inertia in atomic units:
                           1         2         3
     EIGENVALUES --   226.47769 528.25594 679.83436
           X            0.15811   0.25700   0.95339
           Y            0.98731  -0.02635  -0.15663
           Z           -0.01513   0.96605  -0.25791
 This molecule is an asymmetric top.
 Rotational symmetry number  1.
 Rotational temperatures (Kelvin)      0.38244     0.16396     0.12740
 Rotational constants (GHZ):           7.96874     3.41641     2.65468
 Zero-point vibrational energy     357363.4 (Joules/Mol)
                                   85.41191 (Kcal/Mol)
 Warning -- explicit consideration of   8 degrees of freedom as
           vibrations may cause significant error
 Vibrational temperatures:    169.80   314.46   343.03   366.39   447.08
          (Kelvin)            541.35   666.86   714.01  1113.96  1177.12
                             1321.77  1411.82  1439.49  1492.21  1579.28
                             1627.70  1695.34  1817.54  1908.85  1928.80
                             2000.72  2022.85  2030.17  2054.44  2130.16
                             2149.97  2153.12  2155.64  2174.58  4302.52
                             4336.51  4355.76  4361.30  4377.52  4430.92
                             4440.34  4466.33  4471.80  5470.27

 Zero-point correction=                           0.136113 (Hartree/Particle)
 Thermal correction to Energy=                    0.142850
 Thermal correction to Enthalpy=                  0.143794
 Thermal correction to Gibbs Free Energy=         0.106556
 Sum of electronic and zero-point Energies=           -233.606936
 Sum of electronic and thermal Energies=              -233.600199
 Sum of electronic and thermal Enthalpies=            -233.599255
 Sum of electronic and thermal Free Energies=         -233.636493

                     E (Thermal)             CV                S
                      KCal/Mol        Cal/Mol-Kelvin    Cal/Mol-Kelvin
 Total                   89.640             23.892             78.375
 Electronic               0.000              0.000              0.000
 Translational            0.889              2.981             38.823
 Rotational               0.889              2.981             25.900
 Vibrational             87.862             17.931             13.651
 Vibration  1             0.608              1.934              3.133
 Vibration  2             0.646              1.813              1.971
 Vibration  3             0.656              1.782              1.815
 Vibration  4             0.665              1.755              1.698
 Vibration  5             0.700              1.653              1.358
 Vibration  6             0.747              1.521              1.054
 Vibration  7             0.821              1.331              0.756
 Vibration  8             0.852              1.258              0.668

 Normal termination of Gaussian 03 at Mon Oct 19 14:32:28 2009.
