 Gaussian 03, Revision D.01,
 Gaussian 03:  AM64L-G03RevD.01 13-Oct-2005

 --------------------------------------
 # opt=calcfc geom=connectivity cbs-qb3
 --------------------------------------

 ---------------
 sBuOH: geometry
 ---------------
 Symbolic Z-matrix:
 Charge =  0 Multiplicity = 1

 SCF Done:  E(RB+HF-LYP) =  -233.742938159     A.U. after   12 cycles
 SCF Done:  E(RB+HF-LYP) =  -233.743040598     A.U. after   10 cycles
 SCF Done:  E(RB+HF-LYP) =  -233.743040673     A.U. after    6 cycles
 Optimization completed.
    -- Stationary point found.
 Normal termination of Gaussian 03 at Mon Oct 19 14:03:06 2009.

 -------------------------------------------------------
 #N Geom=AllCheck Guess=Read SCRF=Check B3LYP/CBSB7 Freq
 -------------------------------------------------------

 sBuOH: geometry
 ---------------
 Redundant internal coordinates taken from checkpoint file:
 sBuOH-geom.chk
 Charge =  0 Multiplicity = 1

 SCF Done:  E(RB+HF-LYP) =  -233.743040673     A.U. after    1 cycles

  Exact polarizability:  57.620  -1.008  49.507   0.457   0.636  48.709
 Approx polarizability:  66.672   0.051  69.654   0.723   1.246  71.047

                     1                      2                      3
                     A                      A                      A
 Frequencies --   119.3910               218.9704               234.5228
 Red. masses --     1.9080                 1.1629                 1.3935
 Frc consts  --     0.0160                 0.0329                 0.0452
 IR Inten    --     0.1173                 0.0445                 3.1214

                     4                      5                      6
                     A                      A                      A
 Frequencies --   254.7213               311.7045               375.6565
 Red. masses --     1.6010                 1.0565                 2.7748
 Frc consts  --     0.0612                 0.0605                 0.2307
 IR Inten    --     0.4132               103.0225                14.6300

                     7                      8                      9
                     A                      A                      A
 Frequencies --   463.7230               495.7653               773.6904
 Red. masses --     2.1043                 2.8519                 1.5985
 Frc consts  --     0.2666                 0.4130                 0.5638
 IR Inten    --     7.6738                14.5569                 0.8886

                    10                     11                     12
                     A                      A                      A
 Frequencies --   817.0561               918.2639               981.3261
 Red. masses --     1.5500                 2.1136                 1.2708
 Frc consts  --     0.6097                 1.0500                 0.7210
 IR Inten    --     5.3964                15.3432                13.7517

                    13                     14                     15
                     A                      A                      A
 Frequencies --  1000.3537              1037.1539              1096.1268
 Red. masses --     1.5084                 3.1682                 1.4739
 Frc consts  --     0.8894                 2.0079                 1.0434
 IR Inten    --    13.6054                 8.0920                62.6884

                    16                     17                     18
                     A                      A                      A
 Frequencies --  1130.8949              1178.0927              1262.6423
 Red. masses --     2.1162                 2.1608                 1.3194
 Frc consts  --     1.5946                 1.7669                 1.2394
 IR Inten    --    21.5988                13.7352                 7.7440

                    19                     20                     21
                     A                      A                      A
 Frequencies --  1326.6519              1340.1852              1390.6465
 Red. masses --     1.2932                 1.3330                 1.5155
 Frc consts  --     1.3410                 1.4106                 1.7268
 IR Inten    --     4.2410                 4.2945                 3.7979

                    22                     23                     24
                     A                      A                      A
 Frequencies --  1405.1404              1409.6920              1426.8951
 Red. masses --     1.2463                 1.2365                 1.1977
 Frc consts  --     1.4498                 1.4477                 1.4368
 IR Inten    --     5.7841                12.9567                36.9770

                    25                     26                     27
                     A                      A                      A
 Frequencies --  1481.2507              1494.5803              1496.3344
 Red. masses --     1.0696                 1.0583                 1.0533
 Frc consts  --     1.3827                 1.3928                 1.3895
 IR Inten    --     0.3714                 4.8714                 3.7973

                    28                     29                     30
                     A                      A                      A
 Frequencies --  1497.5161              1511.5147              2990.9086
 Red. masses --     1.0432                 1.0597                 1.0663
 Frc consts  --     1.3784                 1.4264                 5.6198
 IR Inten    --    11.7688                 7.0471                20.9006

                    31                     32                     33
                     A                      A                      A
 Frequencies --  3013.9797              3027.1999              3030.8611
 Red. masses --     1.0431                 1.0408                 1.0813
 Frc consts  --     5.5826                 5.6194                 5.8521
 IR Inten    --    17.9131                29.9380                21.6583

                    34                     35                     36
                     A                      A                      A
 Frequencies --  3042.1312              3079.5213              3086.1786
 Red. masses --     1.0902                 1.0975                 1.1008
 Frc consts  --     5.9444                 6.1324                 6.1773
 IR Inten    --    30.4155                36.4638                61.8729

                    37                     38                     39
                     A                      A                      A
 Frequencies --  3104.3106              3107.4735              3801.9860
 Red. masses --     1.1013                 1.1010                 1.0659
 Frc consts  --     6.2532                 6.2638                 9.0778
 IR Inten    --    19.2587                37.9237                13.4112

 - Thermochemistry -
 -------------------
 Temperature   298.150 Kelvin.  Pressure   1.00000 Atm.
 Atom  1 has atomic number  6 and mass  12.00000

 Molecular mass:    74.07317 amu.
 Principal axes and moments of inertia in atomic units:
                           1         2         3
     EIGENVALUES --   226.47773 528.25589 679.83436
           X            0.99960  -0.02765   0.00529
           Y            0.02759   0.99956   0.01092
           Z           -0.00558  -0.01077   0.99993
 This molecule is an asymmetric top.
 Rotational symmetry number  1.
 Rotational temperatures (Kelvin)      0.38244     0.16396     0.12740
 Rotational constants (GHZ):           7.96874     3.41641     2.65468
 Zero-point vibrational energy     357294.7 (Joules/Mol)
                                   85.39549 (Kcal/Mol)
 Warning -- explicit consideration of   8 degrees of freedom as
           vibrations may cause significant error
 Vibrational temperatures:    171.78   315.05   337.43   366.49   448.47
          (Kelvin)            540.49   667.19   713.29  1113.17  1175.56
                             1321.18  1411.91  1439.28  1492.23  1577.08
                             1627.10  1695.01  1816.66  1908.75  1928.23
                             2000.83  2021.68  2028.23  2052.98  2131.19
                             2150.37  2152.89  2154.59  2174.73  4303.25
                             4336.44  4355.46  4360.73  4376.94  4430.74
                             4440.32  4466.41  4470.96  5470.20

 Zero-point correction=                           0.136086 (Hartree/Particle)
 Thermal correction to Energy=                    0.142827
 Thermal correction to Enthalpy=                  0.143771
 Thermal correction to Gibbs Free Energy=         0.106531
 Sum of electronic and zero-point Energies=           -233.606954
 Sum of electronic and thermal Energies=              -233.600214
 Sum of electronic and thermal Enthalpies=            -233.599269
 Sum of electronic and thermal Free Energies=         -233.636509

                     E (Thermal)             CV                S
                      KCal/Mol        Cal/Mol-Kelvin    Cal/Mol-Kelvin
 Total                   89.625             23.903             78.378
 Electronic               0.000              0.000              0.000
 Translational            0.889              2.981             38.823
 Rotational               0.889              2.981             25.900
 Vibrational             87.848             17.942             13.654
 Vibration  1             0.609              1.933              3.110
 Vibration  2             0.647              1.812              1.968
 Vibration  3             0.654              1.788              1.844
 Vibration  4             0.665              1.755              1.698
 Vibration  5             0.700              1.651              1.353
 Vibration  6             0.746              1.522              1.057
 Vibration  7             0.821              1.331              0.755
 Vibration  8             0.851              1.259              0.669

 Optimization completed.
    -- Stationary point found.
 Normal termination of Gaussian 03 at Mon Oct 19 14:06:11 2009.

 ---------------------------------------------------------
 #N Geom=AllCheck Guess=Read SCRF=Check CCSD(T)/6-31+G(d')
 ---------------------------------------------------------

 sBuOH: geometry
 ---------------
 Redundant internal coordinates taken from checkpoint file:
 sBuOH-geom.chk
 Charge =  0 Multiplicity = 1

 SCF Done:  E(RHF) =  -232.150369069     A.U. after   12 cycles
 CCSD(T)= -0.23295615615D+03
 9343611\CCSD(T)=-232.9561561\RMSD=1.785e-09\Thermal=0.\PG=C01 [X(C4H10
 Normal termination of Gaussian 03 at Mon Oct 19 14:14:25 2009.

 ---------------------------------------------------
 #N Geom=AllCheck Guess=Read SCRF=Check MP4SDQ/CBSB4
 ---------------------------------------------------

 sBuOH: geometry
 ---------------
 Redundant internal coordinates taken from checkpoint file:
 sBuOH-geom.chk
 Charge =  0 Multiplicity = 1

 SCF Done:  E(RHF) =  -232.171035913     A.U. after   11 cycles
 Normal termination of Gaussian 03 at Mon Oct 19 14:15:28 2009.

 ----------------------------------------------------------------------
 #N Geom=AllCheck Guess=Read SCRF=Check MP2/CBSB3 CBSExtrap=(NMin=10,Mi
 nPop)
 ----------------------------------------------------------------------

 sBuOH: geometry
 ---------------
 Redundant internal coordinates taken from checkpoint file:
 sBuOH-geom.chk
 Charge =  0 Multiplicity = 1

                         Standard orientation:
 ---------------------------------------------------------------------
 Center     Atomic     Atomic              Coordinates (Angstroms)
 Number     Number      Type              X           Y           Z
 ---------------------------------------------------------------------
    1          6             0       -2.066968   -0.048470   -0.104326
    2          1             0       -2.078133    1.009166    0.165745
    3          1             0       -2.241129   -0.116565   -1.182661
    4          1             0       -2.901122   -0.543098    0.400010
    5          6             0       -0.729030   -0.686020    0.276105
    6          1             0       -0.614195   -0.690327    1.369198
    7          1             0       -0.710268   -1.736876   -0.035668
    8          6             0        0.482521    0.031583   -0.332519
    9          1             0        0.358535    0.069368   -1.420087
   10          6             0        1.803404   -0.663583   -0.006474
   11          1             0        1.825001   -1.684006   -0.400007
   12          1             0        2.638619   -0.106886   -0.436450
   13          1             0        1.953652   -0.720890    1.077945
   14          8             0        0.521504    1.410171    0.056819
   15          1             0        0.657443    1.437685    1.010704
 ---------------------------------------------------------------------

 SCF Done:  E(RHF) =  -232.235356342     A.U. after   11 cycles
 E2 =    -0.9354834302D+00 EUMP2 =    -0.23317083977232D+03
 E2(CBS)=      -1.027112 CBS-Int=       0.031307 OIii=       8.488693

 The electronic state is 1-A.
 Alpha  occ. eigenvalues --  -20.55186 -11.27683 -11.22115 -11.21584 -11.20844
 Alpha  occ. eigenvalues --   -1.35542  -1.05885  -0.98522  -0.86713  -0.80378
 Alpha  occ. eigenvalues --   -0.65299  -0.64526  -0.61669  -0.57868  -0.56695
 Alpha  occ. eigenvalues --   -0.53185  -0.51662  -0.49890  -0.48335  -0.46267
 Alpha  occ. eigenvalues --   -0.43228
 Alpha virt. eigenvalues --    0.04139   0.05249   0.05524   0.06204   0.07907
 Alpha virt. eigenvalues --    0.08197   0.08522   0.08745   0.10595   0.11435
 Alpha virt. eigenvalues --    0.13676   0.13890   0.16751   0.16994   0.18190

 Mulliken atomic charges:
              1
     1  C   -0.288343
     2  H    0.071588
     3  H    0.052178
     4  H    0.060456
     5  C   -0.058695
     6  H    0.050304
     7  H    0.033312
     8  C    0.257827
     9  H    0.042207
    10  C   -0.287357
    11  H    0.054045
    12  H    0.092592
    13  H    0.058914
    14  O   -0.376011
    15  H    0.236984
 Sum of Mulliken charges=   0.00000

 Dipole moment (field-independent basis, Debye):
    X=     0.1457    Y=    -1.5213    Z=     0.9450  Tot=     1.7968
 Quadrupole moment (field-independent basis, Debye-Ang):
   XX=   -33.9751   YY=   -36.5061   ZZ=   -31.0504
   XY=    -0.4182   XZ=     0.6764   YZ=     2.4398

 1\1\GINC-NODE24\Mixed\CBS-QB3\CBS-QB3\C4H10O1\MRHARPER\19-Oct-2009\0\\
 # opt=calcfc geom=connectivity cbs-qb3\\sBuOH: geometry\\0,1\C,0,0.002
 5098319,-0.0013057912,-0.0031346565\H,0,0.0190431872,-0.0082711156,1.0
 883485568\H,0,1.0405564346,0.0037591827,-0.3498453254\H,0,-0.464747232
 5,0.9290917706,-0.336086379\C,0,-0.7476577168,-1.2234408933,-0.5369048
 119\H,0,-1.8084056897,-1.163538246,-0.2553336817\H,0,-0.7240305066,-1.
 2309476021,-1.6329150051\C,0,-0.1871233347,-2.5551409676,-0.0215315007
 \H,0,0.878501641,-2.6070704995,-0.2692243872\C,0,-0.8974686794,-3.7657

 Normal termination of Gaussian 03 at Mon Oct 19 14:18:46 2009.
