 Gaussian 03, Revision D.01,
 Gaussian 03:  AM64L-G03RevD.01 13-Oct-2005

 -------------------------------------------
 # opt=(calcfc,ts) geom=connectivity cbs-qb3
 -------------------------------------------

 ----------------------------------
 TS: sBuOH = C4H8-1 + H2O: geometry
 ----------------------------------
 Symbolic Z-matrix:
 Charge =  0 Multiplicity = 1

 SCF Done:  E(RB+HF-LYP) =  -233.638724963     A.U. after   15 cycles
 SCF Done:  E(RB+HF-LYP) =  -233.638830185     A.U. after   12 cycles
 SCF Done:  E(RB+HF-LYP) =  -233.638831458     A.U. after    8 cycles
 Optimization completed.
    -- Stationary point found.
 Normal termination of Gaussian 03 at Mon Oct 19 14:03:01 2009.

 -------------------------------------------------------
 #N Geom=AllCheck Guess=Read SCRF=Check B3LYP/CBSB7 Freq
 -------------------------------------------------------

 TS: sBuOH = C4H8-1 + H2O: geometry
 ----------------------------------
 Redundant internal coordinates taken from checkpoint file:
 TS1-geom.chk
 Charge =  0 Multiplicity = 1

 SCF Done:  E(RB+HF-LYP) =  -233.638831458     A.U. after    1 cycles

  Exact polarizability:  64.623   2.792  61.218   1.323   2.158  46.991
 Approx polarizability:  80.916   3.545  94.876   3.835  -0.339  69.373

 ******    1 imaginary frequencies (negative Signs) ******

                     1                      2                      3
                     A                      A                      A
 Frequencies -- -1959.5049               124.6502               217.8490
 Red. masses --     1.1117                 2.0148                 2.9939
 Frc consts  --     2.5150                 0.0184                 0.0837
 IR Inten    --   499.4298                 1.0539                 1.7039

                     4                      5                      6
                     A                      A                      A
 Frequencies --   243.3214               306.3855               355.5918
 Red. masses --     1.1389                 1.9885                 1.4295
 Frc consts  --     0.0397                 0.1100                 0.1065
 IR Inten    --     4.8596                30.8050                48.7546

                     7                      8                      9
                     A                      A                      A
 Frequencies --   382.7358               478.3127               519.1624
 Red. masses --     2.4281                 2.4811                 1.8064
 Frc consts  --     0.2096                 0.3344                 0.2869
 IR Inten    --   104.1799                77.1710                69.1975

                    10                     11                     12
                     A                      A                      A
 Frequencies --   597.5309               745.3077               812.5655
 Red. masses --     1.7002                 1.1401                 1.2808
 Frc consts  --     0.3577                 0.3731                 0.4983
 IR Inten    --     1.9657                11.1877                51.6280

                    13                     14                     15
                     A                      A                      A
 Frequencies --   855.3412               863.6693               995.5241
 Red. masses --     1.5194                 1.3702                 1.2418
 Frc consts  --     0.6549                 0.6022                 0.7251
 IR Inten    --    26.7192                52.1565                 2.6086

                    16                     17                     18
                     A                      A                      A
 Frequencies --  1012.1506              1064.3304              1100.3487
 Red. masses --     1.2242                 1.9107                 1.5897
 Frc consts  --     0.7389                 1.2753                 1.1340
 IR Inten    --     1.8518                13.5491                12.6648

                    19                     20                     21
                     A                      A                      A
 Frequencies --  1207.4230              1235.5855              1291.3178
 Red. masses --     1.7065                 1.8522                 1.2011
 Frc consts  --     1.4658                 1.6661                 1.1800
 IR Inten    --     8.0044                47.1220                 7.2276

                    22                     23                     24
                     A                      A                      A
 Frequencies --  1326.8476              1409.2948              1430.4886
 Red. masses --     1.3618                 1.2304                 1.0793
 Frc consts  --     1.4125                 1.4398                 1.3013
 IR Inten    --    11.4781                 5.0436                17.4042

                    25                     26                     27
                     A                      A                      A
 Frequencies --  1436.8360              1458.7076              1496.0182
 Red. masses --     1.3809                 1.0776                 1.0560
 Frc consts  --     1.6796                 1.3509                 1.3924
 IR Inten    --     7.9906                 3.0870                10.5172

                    28                     29                     30
                     A                      A                      A
 Frequencies --  1505.5835              1515.3171              1606.7417
 Red. masses --     1.5835                 1.0927                 1.0940
 Frc consts  --     2.1149                 1.4783                 1.6640
 IR Inten    --    46.9825                13.3535                49.7656

                    31                     32                     33
                     A                      A                      A
 Frequencies --  2988.9210              3027.1391              3061.2793
 Red. masses --     1.0699                 1.0383                 1.0887
 Frc consts  --     5.6313                 5.6060                 6.0115
 IR Inten    --    17.6043                29.9176                 6.5889

                    34                     35                     36
                     A                      A                      A
 Frequencies --  3089.1239              3108.9235              3118.6278
 Red. masses --     1.0993                 1.0541                 1.1016
 Frc consts  --     6.1808                 6.0025                 6.3127
 IR Inten    --    40.0214                 6.8397                13.4706

                    37                     38                     39
                     A                      A                      A
 Frequencies --  3136.1394              3193.5436              3762.2869
 Red. masses --     1.0913                 1.1140                 1.0669
 Frc consts  --     6.3237                 6.6937                 8.8978
 IR Inten    --    16.6106                18.2969                 9.4556

 - Thermochemistry -
 -------------------
 Temperature   298.150 Kelvin.  Pressure   1.00000 Atm.
 Atom  1 has atomic number  6 and mass  12.00000

 Molecular mass:    74.07317 amu.
 Principal axes and moments of inertia in atomic units:
                           1         2         3
     EIGENVALUES --   261.69108 521.51895 703.28057
           X            0.99983   0.01845  -0.00168
           Y           -0.01836   0.99892   0.04276
           Z            0.00247  -0.04273   0.99908
 This molecule is an asymmetric top.
 Rotational symmetry number  1.
 Rotational temperatures (Kelvin)      0.33098     0.16608     0.12316
 Rotational constants (GHZ):           6.89646     3.46055     2.56618
    1 imaginary frequencies ignored.
 Zero-point vibrational energy     335438.4 (Joules/Mol)
                                   80.17170 (Kcal/Mol)
 Warning -- explicit consideration of   9 degrees of freedom as
           vibrations may cause significant error
 Vibrational temperatures:    179.34   313.44   350.08   440.82   511.62
          (Kelvin)            550.67   688.18   746.96   859.71  1072.33
                             1169.10  1230.64  1242.63  1432.34  1456.26
                             1531.33  1583.15  1737.21  1777.73  1857.92
                             1909.04  2027.66  2058.15  2067.28  2098.75
                             2152.43  2166.20  2180.20  2311.74  4300.39
                             4355.37  4404.49  4444.55  4473.04  4487.00
                             4512.20  4594.79  5413.09

 Zero-point correction=                           0.127762 (Hartree/Particle)
 Thermal correction to Energy=                    0.134537
 Thermal correction to Enthalpy=                  0.135481
 Thermal correction to Gibbs Free Energy=         0.098261
 Sum of electronic and zero-point Energies=           -233.511070
 Sum of electronic and thermal Energies=              -233.504295
 Sum of electronic and thermal Enthalpies=            -233.503351
 Sum of electronic and thermal Free Energies=         -233.540571

                     E (Thermal)             CV                S
                      KCal/Mol        Cal/Mol-Kelvin    Cal/Mol-Kelvin
 Total                   84.423             24.902             78.336
 Electronic               0.000              0.000              0.000
 Translational            0.889              2.981             38.823
 Rotational               0.889              2.981             26.065
 Vibrational             82.646             18.941             13.448
 Vibration  1             0.610              1.928              3.027
 Vibration  2             0.646              1.814              1.977
 Vibration  3             0.659              1.774              1.778
 Vibration  4             0.697              1.662              1.382
 Vibration  5             0.731              1.564              1.141
 Vibration  6             0.752              1.507              1.028
 Vibration  7             0.835              1.298              0.715
 Vibration  8             0.874              1.208              0.612
 Vibration  9             0.955              1.037              0.454

 Optimization completed.
    -- Stationary point found.
 Normal termination of Gaussian 03 at Mon Oct 19 14:06:05 2009.

 ---------------------------------------------------------
 #N Geom=AllCheck Guess=Read SCRF=Check CCSD(T)/6-31+G(d')
 ---------------------------------------------------------

 TS: sBuOH = C4H8-1 + H2O: geometry
 ----------------------------------
 Redundant internal coordinates taken from checkpoint file:
 TS1-geom.chk
 Charge =  0 Multiplicity = 1

 SCF Done:  E(RHF) =  -232.011253562     A.U. after   15 cycles
 CCSD(T)= -0.23283916605D+03
 32.8119941\CCSD(T)=-232.839166\RMSD=2.503e-09\Thermal=0.\PG=C01 [X(C4H
 Normal termination of Gaussian 03 at Mon Oct 19 14:26:14 2009.

 ---------------------------------------------------
 #N Geom=AllCheck Guess=Read SCRF=Check MP4SDQ/CBSB4
 ---------------------------------------------------

 TS: sBuOH = C4H8-1 + H2O: geometry
 ----------------------------------
 Redundant internal coordinates taken from checkpoint file:
 TS1-geom.chk
 Charge =  0 Multiplicity = 1

 SCF Done:  E(RHF) =  -232.036737846     A.U. after   13 cycles
 Normal termination of Gaussian 03 at Mon Oct 19 14:27:26 2009.

 ----------------------------------------------------------------------
 #N Geom=AllCheck Guess=Read SCRF=Check MP2/CBSB3 CBSExtrap=(NMin=10,Mi
 nPop)
 ----------------------------------------------------------------------

 TS: sBuOH = C4H8-1 + H2O: geometry
 ----------------------------------
 Redundant internal coordinates taken from checkpoint file:
 TS1-geom.chk
 Charge =  0 Multiplicity = 1

                         Standard orientation:
 ---------------------------------------------------------------------
 Center     Atomic     Atomic              Coordinates (Angstroms)
 Number     Number      Type              X           Y           Z
 ---------------------------------------------------------------------
    1          6             0       -1.732624   -0.740350   -0.053221
    2          1             0       -1.772617   -1.369394   -0.937855
    3          1             0       -1.638786    0.588813   -0.378664
    4          6             0       -0.450128   -0.379203    0.441329
    5          1             0       -0.354603   -0.114037    1.491575
    6          8             0       -0.684456    1.454830   -0.225180
    7          1             0       -0.854223    2.109075    0.468564
    8          6             0        0.823645   -0.755943   -0.247852
    9          1             0        0.643369   -0.786497   -1.326387
   10          1             0        1.026716   -1.793741    0.057526
   11          6             0        2.023799    0.132618    0.074832
   12          1             0        2.232476    0.144455    1.149343
   13          1             0        2.922858   -0.222929   -0.434635
   14          1             0        1.812945    1.153807   -0.245577
   15          1             0       -2.530639   -0.890927    0.667025
 ---------------------------------------------------------------------

 SCF Done:  E(RHF) =  -232.099894360     A.U. after   13 cycles
 E2 =    -0.9607291864D+00 EUMP2 =    -0.23306062354634D+03
 E2(CBS)=      -1.053593 CBS-Int=       0.032100 OIii=       8.352948

 The electronic state is 1-A.
 Alpha  occ. eigenvalues --  -20.50948 -11.32418 -11.24173 -11.21651 -11.19299
 Alpha  occ. eigenvalues --   -1.27471  -1.09551  -1.00173  -0.87159  -0.78519
 Alpha  occ. eigenvalues --   -0.67930  -0.62972  -0.60755  -0.60304  -0.54116
 Alpha  occ. eigenvalues --   -0.52966  -0.50195  -0.50001  -0.49406  -0.44569
 Alpha  occ. eigenvalues --   -0.34143
 Alpha virt. eigenvalues --    0.03863   0.05151   0.05428   0.06538   0.07619
 Alpha virt. eigenvalues --    0.07973   0.08229   0.09954   0.10282   0.11114
 Alpha virt. eigenvalues --    0.13571   0.14235   0.15328   0.16165   0.16948

 Mulliken atomic charges:
              1
     1  C   -0.726374
     2  H    0.100962
     3  H    0.287606
     4  C    0.403731
     5  H    0.170339
     6  O   -0.604247
     7  H    0.247131
     8  C    0.003016
     9  H    0.073862
    10  H    0.034334
    11  C   -0.284692
    12  H    0.044615
    13  H    0.068999
    14  H    0.099362
    15  H    0.081356
 Sum of Mulliken charges=   0.00000

 Dipole moment (field-independent basis, Debye):
    X=     0.8458    Y=    -1.4777    Z=     1.9166  Tot=     2.5636
 Quadrupole moment (field-independent basis, Debye-Ang):
   XX=   -34.5252   YY=   -35.2431   ZZ=   -32.3849
   XY=    -0.8564   XZ=    -1.8545   YZ=     3.4264

    1 imaginary frequencies ignored.

 1\1\GINC-NODE16\Mixed\CBS-QB3\CBS-QB3\C4H10O1\MRHARPER\19-Oct-2009\0\\
 # opt=(calcfc,ts) geom=connectivity cbs-qb3\\TS: sBuOH = C4H8-1 + H2O:
  geometry\\0,1\C,0,-0.0027189418,0.0016880191,0.0054874336\H,0,-0.0003
 946851,0.001696836,1.0917045479\H,0,1.2702185624,-0.0042210516,-0.5053
 824201\C,0,0.0837047567,1.2577198421,-0.653843951\H,0,-0.3064781844,1.
 3408599822,-1.6654262109\O,0,1.9436014962,0.8852348303,-1.1684912384\H
 ,0,2.0594801164,0.6728671522,-2.1063665143\C,0,0.2602661607,2.55083826
 82,0.0783245464\H,0,0.8517345102,2.3658171149,0.9797699382\H,0,-0.7459

 Normal termination of Gaussian 03 at Mon Oct 19 14:33:15 2009.
