 Gaussian 03, Revision D.01,
 Gaussian 03:  AM64L-G03RevD.01 13-Oct-2005

 -------------------------------------------------------
 # freq geom=connectivity iop(7/33=1) b3lyp/cbsb7 nosymm
 -------------------------------------------------------

 -------------------------------------
 TS: sBuOH = 1-butene + H2O: frequency
 -------------------------------------
 Symbolic Z-matrix:
 Charge =  0 Multiplicity = 1

                          Input orientation:
 ---------------------------------------------------------------------
 Center     Atomic     Atomic              Coordinates (Angstroms)
 Number     Number      Type              X           Y           Z
 ---------------------------------------------------------------------
    1          6             0        0.000000    0.000000    0.000000
    2          1             0        0.000000    0.000000    1.086220
    3          1             0        1.274042    0.000000   -0.508145
    4          6             0        0.082012    1.256431   -0.659134
    5          1             0       -0.306386    1.337781   -1.671548
    6          8             0        1.944712    0.892580   -1.169803
    7          1             0        2.063580    0.680768   -2.107430
    8          6             0        0.251012    2.550341    0.073423
    9          1             0        0.841401    2.368045    0.976130
   10          1             0       -0.757205    2.826228    0.418244
   11          6             0        0.856309    3.687303   -0.748141
   12          1             0        0.254727    3.899212   -1.637778
   13          1             0        0.916146    4.606697   -0.160424
   14          1             0        1.859299    3.404740   -1.070816
   15          1             0       -0.587305   -0.782580   -0.469997
 ---------------------------------------------------------------------

 SCF Done:  E(RB+HF-LYP) =  -233.638832072     A.U. after   15 cycles

 Alpha  occ. eigenvalues --  -19.08414 -10.23952 -10.18152 -10.15972 -10.14047
 Alpha  occ. eigenvalues --   -0.95266  -0.81204  -0.73872  -0.63730  -0.57341
 Alpha  occ. eigenvalues --   -0.50393  -0.45914  -0.44232  -0.43780  -0.38526
 Alpha  occ. eigenvalues --   -0.37443  -0.35550  -0.35155  -0.33952  -0.30354
 Alpha  occ. eigenvalues --   -0.21940
 Alpha virt. eigenvalues --   -0.02166   0.03751   0.06381   0.07105   0.08248
 Alpha virt. eigenvalues --    0.10456   0.12003   0.12445   0.13453   0.15627
 Alpha virt. eigenvalues --    0.18418   0.20287   0.23690   0.24136   0.29236

 Mulliken atomic charges:
              1
     1  C   -0.399635
     2  H    0.111977
     3  H    0.269077
     4  C   -0.021135
     5  H    0.127109
     6  O   -0.539082
     7  H    0.227977
     8  C   -0.165906
     9  H    0.123687
    10  H    0.124498
    11  C   -0.300557
    12  H    0.094343
    13  H    0.105466
    14  H    0.129010
    15  H    0.113171
 Sum of Mulliken charges=   0.00000

 Dipole moment (field-independent basis, Debye):
    X=    -1.5381    Y=     0.5640    Z=    -0.8985  Tot=     1.8684
 Quadrupole moment (field-independent basis, Debye-Ang):
   XX=   -38.4388   YY=   -32.2333   ZZ=   -29.2056
   XY=    -2.2023   XZ=    -0.0375   YZ=     0.3917

  Exact polarizability:  54.582   1.814  64.228  -7.647  -2.639  54.018
 Approx polarizability:  86.636  -0.134  80.524 -12.241  -4.572  78.003

 ******    1 imaginary frequencies (negative Signs) ******

                     1                      2                      3
                     A                      A                      A
 Frequencies -- -1960.0921               121.7878               218.1163
 Red. masses --     1.1116                 1.9636                 3.0280
 Frc consts  --     2.5162                 0.0172                 0.0849
 IR Inten    --   499.0916                 0.9243                 1.5821

                     4                      5                      6
                     A                      A                      A
 Frequencies --   229.9422               307.2085               358.9710
 Red. masses --     1.1434                 2.1828                 1.3458
 Frc consts  --     0.0356                 0.1214                 0.1022
 IR Inten    --     4.4920                35.4052                37.4576

                     7                      8                      9
                     A                      A                      A
 Frequencies --   382.5644               479.2789               519.8279
 Red. masses --     2.4608                 2.4470                 1.8396
 Frc consts  --     0.2122                 0.3312                 0.2929
 IR Inten    --   106.9865                78.8198                72.1250

                    10                     11                     12
                     A                      A                      A
 Frequencies --   597.8884               744.9729               812.2177
 Red. masses --     1.6743                 1.1394                 1.2800
 Frc consts  --     0.3526                 0.3726                 0.4975
 IR Inten    --     1.9312                11.1214                51.0044

                    13                     14                     15
                     A                      A                      A
 Frequencies --   854.9334               865.1162               995.2212
 Red. masses --     1.5735                 1.3299                 1.2361
 Frc consts  --     0.6776                 0.5864                 0.7213
 IR Inten    --    21.1756                58.4955                 2.7058

                    16                     17                     18
                     A                      A                      A
 Frequencies --  1011.3777              1064.1216              1099.9432
 Red. masses --     1.2331                 1.9336                 1.5780
 Frc consts  --     0.7432                 1.2900                 1.1248
 IR Inten    --     1.7532                12.8906                13.3025

                    19                     20                     21
                     A                      A                      A
 Frequencies --  1206.7891              1235.5080              1292.9435
 Red. masses --     1.7091                 1.8456                 1.1999
 Frc consts  --     1.4665                 1.6599                 1.1818
 IR Inten    --     7.9136                46.8856                 7.0220

                    22                     23                     24
                     A                      A                      A
 Frequencies --  1327.5164              1406.8478              1430.9516
 Red. masses --     1.3644                 1.2314                 1.0885
 Frc consts  --     1.4167                 1.4360                 1.3132
 IR Inten    --    12.0018                 5.0760                16.2375

                    25                     26                     27
                     A                      A                      A
 Frequencies --  1436.3968              1458.8718              1493.3958
 Red. masses --     1.3583                 1.0770                 1.0511
 Frc consts  --     1.6511                 1.3505                 1.3811
 IR Inten    --     8.7809                 3.1984                10.1130

                    28                     29                     30
                     A                      A                      A
 Frequencies --  1505.0109              1514.4232              1608.8820
 Red. masses --     1.5895                 1.1039                 1.0916
 Frc consts  --     2.1212                 1.4916                 1.6648
 IR Inten    --    45.9753                14.4591                50.3289

                    31                     32                     33
                     A                      A                      A
 Frequencies --  2989.0562              3026.6880              3061.5886
 Red. masses --     1.0700                 1.0385                 1.0886
 Frc consts  --     5.6323                 5.6052                 6.0121
 IR Inten    --    17.6205                29.9084                 6.5820

                    34                     35                     36
                     A                      A                      A
 Frequencies --  3088.7011              3108.9278              3118.8116
 Red. masses --     1.0991                 1.0541                 1.1015
 Frc consts  --     6.1780                 6.0027                 6.3126
 IR Inten    --    39.9736                 6.8642                13.4088

                    37                     38                     39
                     A                      A                      A
 Frequencies --  3135.8525              3193.5720              3762.5991
 Red. masses --     1.0913                 1.1140                 1.0669
 Frc consts  --     6.3227                 6.6938                 8.8993
 IR Inten    --    16.6956                18.2750                 9.4503

 - Thermochemistry -
 -------------------
 Temperature   298.150 Kelvin.  Pressure   1.00000 Atm.
 Atom  1 has atomic number  6 and mass  12.00000

 Molecular mass:    74.07317 amu.
 Principal axes and moments of inertia in atomic units:
                           1         2         3
     EIGENVALUES --   261.69099 521.51898 703.28048
           X            0.04261   0.83729   0.54510
           Y            0.99869  -0.05109   0.00041
           Z           -0.02819  -0.54437   0.83837
 This molecule is an asymmetric top.
 Rotational symmetry number  1.
 Rotational temperatures (Kelvin)      0.33098     0.16608     0.12316
 Rotational constants (GHZ):           6.89646     3.46055     2.56618
    1 imaginary frequencies ignored.
 Zero-point vibrational energy     335354.1 (Joules/Mol)
                                   80.15155 (Kcal/Mol)
 Warning -- explicit consideration of   9 degrees of freedom as
           vibrations may cause significant error
 Vibrational temperatures:    175.23   313.82   330.84   442.00   516.48
          (Kelvin)            550.42   689.57   747.92   860.23  1071.85
                             1168.60  1230.06  1244.71  1431.90  1455.15
                             1531.03  1582.57  1736.30  1777.62  1860.26
                             1910.00  2024.14  2058.82  2066.65  2098.99
                             2148.66  2165.37  2178.91  2314.82  4300.58
                             4354.72  4404.94  4443.95  4473.05  4487.27
                             4511.79  4594.83  5413.53

 Zero-point correction=                           0.127730 (Hartree/Particle)
 Thermal correction to Energy=                    0.134523
 Thermal correction to Enthalpy=                  0.135467
 Thermal correction to Gibbs Free Energy=         0.098190
 Sum of electronic and zero-point Energies=           -233.511102
 Sum of electronic and thermal Energies=              -233.504309
 Sum of electronic and thermal Enthalpies=            -233.503365
 Sum of electronic and thermal Free Energies=         -233.540642

                     E (Thermal)             CV                S
                      KCal/Mol        Cal/Mol-Kelvin    Cal/Mol-Kelvin
 Total                   84.415             24.916             78.457
 Electronic               0.000              0.000              0.000
 Translational            0.889              2.981             38.823
 Rotational               0.889              2.981             26.065
 Vibrational             82.637             18.954             13.569
 Vibration  1             0.609              1.931              3.072
 Vibration  2             0.646              1.813              1.975
 Vibration  3             0.652              1.795              1.879
 Vibration  4             0.697              1.660              1.377
 Vibration  5             0.734              1.557              1.127
 Vibration  6             0.752              1.507              1.029
 Vibration  7             0.836              1.296              0.712
 Vibration  8             0.875              1.206              0.610
 Vibration  9             0.956              1.036              0.453

 Normal termination of Gaussian 03 at Mon Oct 19 16:37:27 2009.
